COORD
	0	0	2300.0	0	0	2305.0
	100.0	0	2300.0	100.0	0	2305.0
	200.0	0	2300.0	200.0	0	2305.0
	300.0	0	2300.0	300.0	0	2305.0
	400.0	0	2300.0	400.0	0	2305.0
	500.0	0	2300.0	500.0	0	2305.0
	600.0	0	2300.0	600.0	0	2305.0
	700.0	0	2300.0	700.0	0	2305.0
	800.0	0	2300.0	800.0	0	2305.0
	900.0	0	2300.0	900.0	0	2305.0
	1000.0	0	2300.0	1000.0	0	2305.0
	1100.0	0	2300.0	1100.0	0	2305.0
	1200.0	0	2300.0	1200.0	0	2305.0
	1300.0	0	2300.0	1300.0	0	2305.0
	1400.0	0	2300.0	1400.0	0	2305.0
	1500.0	0	2300.0	1500.0	0	2305.0
	1600.0	0	2300.0	1600.0	0	2305.0
	1700.0	0	2300.0	1700.0	0	2305.0
	1800.0	0	2300.0	1800.0	0	2305.0
	1900.0	0	2300.0	1900.0	0	2305.0
	2000.0	0	2300.0	2000.0	0	2305.0
	2100.0	0	2300.0	2100.0	0	2305.0
	2200.0	0	2300.0	2200.0	0	2305.0
	2300.0	0	2300.0	2300.0	0	2305.0
	2400.0	0	2300.0	2400.0	0	2305.0
	2500.0	0	2300.0	2500.0	0	2305.0
	2600.0	0	2300.0	2600.0	0	2305.0
	2700.0	0	2300.0	2700.0	0	2305.0
	2800.0	0	2300.0	2800.0	0	2305.0
	2900.0	0	2300.0	2900.0	0	2305.0
	3000.0	0	2300.0	3000.0	0	2305.0
	0	100.0	2300.0	0	100.0	2305.0
	100.0	100.0	2300.0	100.0	100.0	2305.0
	200.0	100.0	2300.0	200.0	100.0	2305.0
	300.0	100.0	2300.0	300.0	100.0	2305.0
	400.0	100.0	2300.0	400.0	100.0	2305.0
	500.0	100.0	2300.0	500.0	100.0	2305.0
	600.0	100.0	2300.0	600.0	100.0	2305.0
	700.0	100.0	2300.0	700.0	100.0	2305.0
	800.0	100.0	2300.0	800.0	100.0	2305.0
	900.0	100.0	2300.0	900.0	100.0	2305.0
	1000.0	100.0	2300.0	1000.0	100.0	2305.0
	1100.0	100.0	2300.0	1100.0	100.0	2305.0
	1200.0	100.0	2300.0	1200.0	100.0	2305.0
	1300.0	100.0	2300.0	1300.0	100.0	2305.0
	1400.0	100.0	2300.0	1400.0	100.0	2305.0
	1500.0	100.0	2300.0	1500.0	100.0	2305.0
	1600.0	100.0	2300.0	1600.0	100.0	2305.0
	1700.0	100.0	2300.0	1700.0	100.0	2305.0
	1800.0	100.0	2300.0	1800.0	100.0	2305.0
	1900.0	100.0	2300.0	1900.0	100.0	2305.0
	2000.0	100.0	2300.0	2000.0	100.0	2305.0
	2100.0	100.0	2300.0	2100.0	100.0	2305.0
	2200.0	100.0	2300.0	2200.0	100.0	2305.0
	2300.0	100.0	2300.0	2300.0	100.0	2305.0
	2400.0	100.0	2300.0	2400.0	100.0	2305.0
	2500.0	100.0	2300.0	2500.0	100.0	2305.0
	2600.0	100.0	2300.0	2600.0	100.0	2305.0
	2700.0	100.0	2300.0	2700.0	100.0	2305.0
	2800.0	100.0	2300.0	2800.0	100.0	2305.0
	2900.0	100.0	2300.0	2900.0	100.0	2305.0
	3000.0	100.0	2300.0	3000.0	100.0	2305.0
/

ZCORN
120*5.0
240*10.0
240*15.0
240*20.0
240*25.0
240*30.0
240*35.0
240*40.0
240*45.0
240*50.0
240*55.0
240*60.0
240*65.0
240*70.0
240*75.0
240*80.0
240*85.0
240*90.0
240*95.0
240*100.0
240*105.0
240*110.0
240*115.0
240*120.0
240*125.0
240*130.0
240*135.0
240*140.0
240*145.0
240*150.0
120*155.0
/

PORO
900*0.25 
/

NTG
900*1 
/

PERMX
900*100 
/

PERMY
900*100 
/

PERMZ
900*100 
/

ACTNUM
900*1 
/

